1
Lattice="12.73662384 5e-08 -5.8e-07 5e-08 12.53954042 8e-08 -5.8e-07 8e-08 12.7219516" Properties=species:S:1:pos:R:3:dft_forces:R:3 config_type=IsolatedAtom dft_energy=-0.50168713 dft_stress="0.0003834467573826178 7.300693224545648e-07 2.8800819710475707e-06 7.300693224545648e-07 0.0003703080311481225 -8.57769350868311e-06 2.8800819710475707e-06 -8.57769350868311e-06 0.00037415770659583947" free_dft_energy=-0.62798834 pbc="T T T"
Ru       0.00000000       0.00000000       0.00000000       0.00010636      -0.00004021       0.00006329
1
Lattice="12.73662384 5e-08 -5.8e-07 5e-08 12.53954042 8e-08 -5.8e-07 8e-08 12.7219516" Properties=species:S:1:pos:R:3:dft_forces:R:3 config_type=IsolatedAtom dft_energy=-0.08587163 dft_stress="0.0003342257670272453 2.314808462345527e-05 1.3562362424905508e-05 2.314808462345527e-05 0.0003471479253780908 1.7793506427378274e-05 1.3562362424905508e-05 1.7793506427378274e-05 0.0003860341937152801" free_dft_energy=-0.16299163 pbc="T T T"
O        0.00000000       0.00000000       0.00000000       0.00000812      -0.00002607       0.00006773
12
Lattice="6.38123338 3e-08 -2.9e-07 1e-08 3.1251161 2e-08 -2.9e-07 4e-08 6.3802764" Properties=species:S:1:pos:R:3:dft_forces:R:3 dft_energy=-84.41059022 dft_stress="0.0008133108317042796 9.874067437147316e-09 2.1526964975171357e-08 9.874067437147316e-09 -0.0007050207732003875 1.0298490057707377e-08 2.1526964975171357e-08 1.0298490057707377e-08 0.0002541635826621095" free_dft_energy=-84.43222852 pbc="T T T"
Ru       0.00001090       1.56255804       3.19014070      -0.00019742       0.00000082      -0.00007752
Ru       3.19061395       1.56255806      -0.00000147       0.00003819       0.00000026       0.00001919
Ru       0.00000364       0.00000000      -0.00000262      -0.00007725      -0.00000021       0.00004610
Ru       3.19060672       0.00000000       3.19013984       0.00029212       0.00000106      -0.00004746
O        4.42851106       1.56255815       3.19013839       0.05053708      -0.00000101       0.00003473
O        1.23770454       1.56255806       0.00000238       0.05783517       0.00000008      -0.00002502
O        1.95272849       1.56255808       3.19013646      -0.05080560      -0.00000038       0.00000555
O        5.14352681       1.56255807       0.00000010      -0.05776770       0.00000025      -0.00005456
O       -0.00000409       0.00000003       4.42797945       0.00013028      -0.00000030       0.04458554
O        3.19061740       0.00000002       1.23808783      -0.00004933      -0.00000010       0.03868194
O       -0.00000392       0.00000001       1.95229535       0.00012137      -0.00000031      -0.04449459
O        3.19061697       0.00000005       5.14218809      -0.00005689      -0.00000016      -0.03867390
192
Lattice="12.69378306 5e-08 -5.8e-07 5e-08 12.4584657 8e-08 -5.8e-07 8e-08 12.88276756" Properties=species:S:1:pos:R:3:dft_forces:R:3 dft_energy=-1347.7043834 dft_stress="-0.010352290037610316 1.1038308617416572e-05 -1.1453936951618263e-05 1.1038308617416572e-05 0.004756111867488811 -0.0003297924917517309 -1.1453936951618263e-05 -0.0003297924917517309 0.030089102639588337" free_dft_energy=-1348.06081942 pbc="T T T"
O        4.41232763       1.55972233       3.22263390      -0.15373923      -0.03846503      -0.05330674
O        1.22442321       1.55329443      12.88245846       0.20861567       0.04465087      -0.00468603
O        1.94489256       1.56114694       3.22267382       0.02811015      -0.03368369      -0.01765393
O        5.11384157       1.54957825       0.00939737       0.08750611       0.04076968      -0.07650086
O        0.00810102      12.45448487       4.48015152      -0.06784918      -0.01944858      -0.10533133
O        3.16609644      12.45727008       1.24195528       0.09492747       0.06894142       0.17957425
O        0.00583423       0.00893248       1.97338775      -0.06840385      -0.12100785      -0.09530065
O        3.16492336      12.45675507       5.19776456       0.09477805      -0.05296712      -0.25669456
O        4.39756726       1.56042004       9.65379598       0.25601844      -0.08183860       0.10209309
O        1.23742269       1.56622740       6.44625561      -0.15623955      -0.13991714      -0.03295974
O        1.95058505       1.54824749       9.66698946      -0.15364755       0.12470868      -0.02961026
O        5.11327184       1.56595432       6.43226745      -0.01284236      -0.17001065       0.03561409
O        0.00528741      12.45275082      10.91534346      -0.06967385       0.16703438       0.00664075
O        3.17919245      12.44934218       7.68380503      -0.00664669       0.10146248       0.16364833
O        0.00719573       0.00102812       8.42023833      -0.05513371       0.03488084      -0.30629510
O        3.17119088      12.45100304      11.63934982       0.06881812       0.12915920      -0.25880462
O        4.40933470       4.67465520       3.21671919      -0.14840003      -0.06221001       0.02032677
O        1.23885275       4.67009769      12.87710478      -0.03897761      -0.01053167       0.03300977
O        1.94073599       4.67131196       3.22273233      -0.00497043      -0.03294735      -0.05094258
O        5.10766047       4.66520431       0.00303060       0.16976279       0.04787824      -0.06655570
O       12.69171417       3.11108951       4.47419312       0.00970722       0.09740555       0.14280754
O        3.17430039       3.10655881       1.24071680      -0.00036660       0.09262246       0.22871709
O       12.68696223       3.11402882       1.96656486       0.06359525       0.01221357       0.02287184
O        3.18093576       3.12048889       5.19541996      -0.04044581      -0.11122529      -0.32406593
O        4.40960034       4.67215358       9.66510733       0.03194344       0.02437587       0.01811323
O        1.22518501       4.67129142       6.43530927       0.09000695       0.06067832       0.05062735
O        1.94512902       4.67465323       9.65406137      -0.06804844      -0.10234164       0.06382890
O        5.11865693       4.66291785       6.44344005      -0.09119478       0.10652441      -0.01421604
O       12.68548580       3.11034192      10.91864287       0.07297048       0.10138087      -0.06435472
O        3.17749754       3.10753995       7.69772055       0.00452154       0.08073504      -0.04454291
O        0.00118942       3.11307001       8.41084565      -0.02344885       0.06436981      -0.08485026
O        3.16678648       3.10505937      11.62525305       0.10076586       0.11374736      -0.02004345
O        4.39798000       7.78401801       3.22060787       0.12931635       0.10880994      -0.02078256
O        1.22958351       7.78929983      12.87881435       0.09682900      -0.11265664       0.08169254
O        1.94144203       7.77670090       3.22629792       0.05388475       0.22656280      -0.06049801
O        5.10962046       7.79111143      12.87524397       0.12276423      -0.12005522       0.04738633
O        0.00312262       6.23489463       4.46050616      -0.03184171      -0.01263485       0.29915146
O        3.18192493       6.22755048       1.25465817      -0.07304853       0.03569311       0.00000317
O       12.68633200       6.21942075       1.97673183       0.07577488       0.21206759      -0.19048147
O        3.17446195       6.22975453       5.18347637      -0.01346410      -0.04561971       0.00216410
O        4.40559471       7.78667357       9.65846718      -0.07267461      -0.05993140       0.04686647
O        1.22225593       7.79263990       6.43167455       0.21048125      -0.00416601       0.05944705
O        1.93459928       7.77797245       9.65939099       0.11454110       0.10956214       0.05294745
O        5.11417845       7.78592592       6.44731070      -0.10323728      -0.02539361       0.00084446
O        0.00349654       6.22354314      10.90319110      -0.03741417       0.06413624       0.26114624
O        3.16858030       6.23405147       7.69821785       0.02258482      -0.14344254      -0.09027359
O        0.00824451       6.23233693       8.41228236      -0.07588827       0.00216815      -0.09301747
O        3.16384420       6.22390682      11.63182857       0.07471162       0.10720439      -0.08897347
O        4.41314921      10.89224436       3.21222031      -0.08296581       0.18873971       0.02522559
O        1.23823479      10.89345405       0.00343714      -0.12508848       0.08511828      -0.04085386
O        1.93647687      10.90909244       3.21910072       0.04433059      -0.07919258      -0.03625707
O        5.11252171      10.89322246       0.00944574       0.15231505       0.14668144      -0.06950164
O        0.00521419       9.34768464       4.47582869      -0.04261848      -0.03536920       0.01703069
O        3.17416993       9.34906516       1.24865173      -0.01139229      -0.00352902       0.14825111
O       12.68545030       9.34031250       1.96900193       0.07805881      -0.00260290      -0.15914382
O        3.17394380       9.35045044       5.19916979       0.00046581      -0.14583534      -0.26762669
O        4.41210054      10.90210229       9.65816175      -0.12883892      -0.08889602       0.05223372
O        1.23871762      10.89229844       6.43849161      -0.17836368       0.12342129       0.07928976
O        1.94032330      10.90715145       9.65868452       0.12144688      -0.15812315       0.05329366
O        5.12023606      10.89486104       6.43940521      -0.14792740       0.04022960       0.03432182
O       12.68408100       9.34090272      10.91213415       0.06581324       0.06983546       0.14223835
O        3.17321786       9.34968002       7.70108673       0.00609600      -0.17942470      -0.01286595
O        0.00506486       9.35155850       8.42161543      -0.03922157      -0.06474654      -0.28805162
O        3.16796093       9.33898856      11.63188385       0.05249053       0.11526892      -0.08725001
O       10.74163382       1.54848943       3.22894501       0.36587989       0.13163322      -0.04060070
O        7.57795714       1.56429740      12.87620101       0.00588458      -0.07904075       0.04591957
O        8.29779180       1.55944975       3.21662147      -0.13171334      -0.01633766      -0.02332656
O       11.47088724       1.56609123       0.00979322      -0.29117051      -0.13531705      -0.05926443
O        6.35251295      12.45514208       4.46672056      -0.02585999       0.01663471       0.12745180
O        9.51442199      12.45513074       1.24801878       0.06533218       0.04578570       0.06481004
O        6.34777442       0.00091474       1.96290204       0.05487247      -0.05175093       0.02139539
O        9.51511286      12.45211743       5.19435755       0.05239510       0.06990664      -0.19888479
O       10.75428898       1.55085770       9.65725497      -0.01062242       0.07024630      -0.02365604
O        7.58358598       1.55249408       6.45063250      -0.13765656       0.02088587      -0.03314484
O        8.28502575       1.54993813       9.66144121       0.04903522       0.14602243       0.01267089
O       11.46230519       1.55395797       6.43258781      -0.03550973      -0.02371025       0.10905708
O        6.34314358       0.00240047      10.91940399       0.03971631      -0.00101282       0.05384731
O        9.51132251      12.45687272       7.68970067       0.04843908       0.00588976       0.11612627
O        6.34023382      12.45746088       8.41178522       0.02959509       0.09510625      -0.08499009
O        9.52269997       0.00678736      11.63628799      -0.02679845      -0.07820801      -0.14266756
O       10.75682576       4.66800527       3.22447999      -0.02264279       0.05208611      -0.00969487
O        7.57887740       4.67092587       0.00100815      -0.00144865      -0.04465931      -0.01607773
O        8.29824790       4.68005297       3.22133504      -0.14297178      -0.14454035       0.03272746
O       11.46906498       4.66942385      12.88021100      -0.12831994       0.04581743       0.05234331
O        6.35085421       3.11011723       4.47877993      -0.00330684       0.01230910      -0.07771951
O        9.51945859       3.10749260       1.25459924       0.02018356       0.09838903       0.10182230
O        6.34076785       3.12430990       1.96766946       0.05749409      -0.12899713      -0.05994618
O        9.51651028       3.10702867       5.19865724       0.03376489       0.12273534      -0.26728945
O       10.74848197       4.66685788       9.66144202       0.14587474       0.08824801      -0.03797531
O        7.58115780       4.67669231       6.45076199      -0.11327631      -0.05021286      -0.08249918
O        8.29594623       4.67703719       9.65866680       0.01250153      -0.05408029       0.02590353
O       11.45760825       4.67265566       6.44747465       0.13342074       0.05753831      -0.04937806
O        6.35629524       3.11869417      10.92029511      -0.06809484       0.00235217      -0.03677322
O        9.52048396       3.11454811       7.68616146       0.04154449       0.00246628       0.15274687
O        6.35118509       3.12137348       8.41280071      -0.01290367      -0.05784724      -0.05123823
O        9.52968195       3.11862642      11.62349774      -0.03730084      -0.07160160       0.02507678
O       10.74477797       7.78810865       3.21764957       0.18263028      -0.03377487       0.05070406
O        7.58298461       7.79093445       0.00254250      -0.23443721      -0.07611212      -0.03925279
O        8.27996252       7.79116296       3.21946422       0.26825079      -0.12277781       0.02522041
O       11.47185103       7.78550888      12.87683831      -0.20675743      -0.03613945       0.04732941
O        6.33725753       6.22394254       4.47048061       0.08447008       0.10829269       0.14583869
O        9.51208592       6.22858730       1.24343325       0.09107433      -0.03284221       0.28507670
O        6.34938668       6.23051798       1.97893739      -0.00070092      -0.04623455      -0.24638306
O        9.52840284       6.22481801       5.19368812      -0.04238679       0.15197512      -0.13017444
O       10.74777303       7.79111205       9.66061059       0.15053890      -0.01116398       0.03264367
O        7.57406859       7.78955508       6.44911263       0.03995799      -0.11202926      -0.02849079
O        8.29187623       7.78020852       9.66353599      -0.05830124       0.12670964       0.02195703
O       11.46867203       7.79298641       6.44000717      -0.19474241      -0.00166658       0.02132082
O        6.34048337       6.22367273      10.90654574       0.05431122       0.12123720       0.26311951
O        9.52918924       6.23666478       7.68666300      -0.03644540      -0.02701577       0.18200356
O        6.34418232       6.22960182       8.40826033       0.00852056       0.05696467       0.09437888
O        9.52951669       6.23397353      11.63636159      -0.05867682      -0.07618892      -0.07414305
O       10.75785030      10.89856868       3.22678463      -0.10689122      -0.00490159      -0.05859773
O        7.58168084      10.90363837       0.00852283      -0.07954771      -0.06141997      -0.06857676
O        8.29707604      10.90726356       3.22517337      -0.15054274      -0.07700330      -0.06232143
O       11.46947065      10.90982912       0.00231935      -0.14392573      -0.15534102      -0.00910185
O        6.34063727       9.33691021       4.47455751       0.06055977       0.05531355       0.04761567
O        9.52467804       9.33953184       1.25729964      -0.02977871       0.07166900      -0.03837565
O        6.34886257       9.33891564       1.97488282       0.01899770       0.05613136      -0.27557310
O        9.51089153       9.34482223       5.19689324       0.03171681      -0.01092219      -0.28494365
O       10.74565496      10.90128342       9.65476235       0.15033934       0.11115629       0.06023701
O        7.57620344      10.90336732       6.43988653      -0.08172556      -0.08830290       0.01798567
O        8.29638165      10.89162424       9.66204676      -0.13294574       0.20790044       0.02524091
O       11.46103940      10.90091874       6.45021356      -0.12068627       0.00991740      -0.06882789
O        6.33881428       9.33638002      10.90917733       0.06098262       0.17280182       0.14161111
O        9.53002691       9.34521456       7.68879113      -0.07459600       0.00795123       0.13017204
O        6.35628510       9.34726559       8.41188401      -0.05479976      -0.03868740       0.00867001
O        9.51046879       9.34911097      11.64199125       0.09740175      -0.08498511      -0.30272491
Ru       0.00804239       1.55837941       3.22982140      -0.18531837      -0.03180087      -0.07032409
Ru       3.18187412       1.55973571      12.88151432      -0.33299222      -0.15216513      -0.02920188
Ru      12.68970663       0.00571931      12.88247776       0.21539815      -0.22243112       0.06940117
Ru       3.17466168       0.00280094       3.21476580       0.02184969      -0.16403905       0.12093964
Ru      12.68956360       1.56421804       9.65474223       0.26124020      -0.24391755       0.27645587
Ru       3.18025824       1.55746474       6.43163899      -0.22146614      -0.00626897       0.24770177
Ru      12.68568127      12.44852879       6.44004128       0.35026188       0.31967881       0.08805048
Ru       3.17563303      12.45345411       9.66114676      -0.01132286       0.12006589      -0.05911007
Ru       0.00107059       4.67763076       3.22152621      -0.00791766      -0.27839405       0.02291438
Ru       3.18021658       4.67002419      12.87652381      -0.18448026       0.00998875       0.10392425
Ru      12.69293912       3.11183109      12.88196994       0.10265504       0.13977622       0.04684420
Ru       3.17065897       3.11122975       3.21302987       0.16551037       0.21107694       0.09938482
Ru       0.00238259       4.67352773       9.65788030      -0.04381343      -0.09735389       0.07812866
Ru       3.17215784       4.66825891       6.43154870      -0.00443412       0.10934473       0.27221636
Ru      12.68839833       3.11641178       6.45121818       0.11963284      -0.09569201      -0.19114022
Ru       3.18290716       3.11798801       9.66843242      -0.24027399      -0.15402844      -0.21336777
Ru       0.00956719       7.79276882       3.22353298      -0.30463620      -0.13891643      -0.04582804
Ru       3.17254111       7.79071765       0.00666210      -0.02029798      -0.17763423      -0.13406673
Ru       0.00691903       6.22713073       0.00303715      -0.08527715      -0.09548524      -0.12103093
Ru       3.16640186       6.23213658       3.21840535       0.23020741      -0.18106998       0.01484006
Ru      12.68664583       7.78871468       9.66744094       0.10533728      -0.03218943      -0.11002376
Ru       3.17289625       7.78094315       6.44024949      -0.10539389       0.16803502       0.06314981
Ru       0.00203988       6.23899285       6.44382137      -0.08091635      -0.20696790      -0.11332481
Ru       3.16771107       6.22263068       9.66117815       0.11249978       0.17037604      -0.00654004
Ru      12.68493108      10.89220590       3.21429303       0.25305362       0.31597351       0.19324470
Ru       3.18218388      10.90663021      12.87820080      -0.25217739      -0.25072558       0.10618453
Ru       0.00404916       9.33445492      12.88205817      -0.07673109       0.37469187      -0.02873817
Ru       3.17317223       9.35126546       3.21889170      -0.01363685      -0.16171650       0.09407868
Ru       0.00479494      10.90559314       9.65928559      -0.12784704      -0.08659978       0.17055541
Ru       3.16934301      10.89162320       6.44797337       0.17445267       0.21520411      -0.09424756
Ru      12.69267921       9.35181369       6.44275515       0.03174054      -0.17470046       0.07317787
Ru       3.17599225       9.33734080       9.66488261      -0.11519914       0.11072286      -0.02495159
Ru       6.34606223       1.55420735       3.21132017       0.18489227       0.05713197       0.19202587
Ru       9.51448813       1.56303790       0.00237889       0.18872297      -0.11788017      -0.09193643
Ru       6.35646112       0.00208595       0.00529440      -0.19927047      -0.12896707      -0.06403775
Ru       9.52983291      12.45818008       3.21708346      -0.19104517      -0.02636786       0.08876847
Ru       6.35088482       1.56046689       9.66792159      -0.18229131       0.04437898      -0.11881897
Ru       9.52049365       1.55332856       6.44410767      -0.01431647       0.04005318      -0.06672470
Ru       6.34083427       0.00242311       6.44620590       0.14527365      -0.14523057      -0.14553035
Ru       9.51401256       0.00759876       9.66028814       0.13076722      -0.35492490       0.03893498
Ru       6.34620340       4.66836916       3.22851598       0.09598738       0.09864605      -0.11929504
Ru       9.52299730       4.66546496       0.00865462       0.00725268       0.14845341      -0.23797555
Ru       6.34067228       3.10789917      12.87933365       0.11370017       0.22447045       0.12775557
Ru       9.52854179       3.11501752       3.21781604      -0.15485108      -0.05448960       0.18507284
Ru       6.35465933       4.68081907       9.67028882      -0.00689880      -0.29875814      -0.25446346
Ru       9.52572312       4.67892961       6.43381501      -0.19433399      -0.23636197       0.19199458
Ru       6.34008332       3.10468610       6.43593049       0.31869994       0.32295260       0.22042466
Ru       9.52995774       3.10791499       9.65460196      -0.22188004       0.17375321       0.02143685
Ru       6.35569506       7.79149584       3.21345153      -0.34762255      -0.23107339       0.23382248
Ru       9.51435272       7.78788200       0.00484663       0.20989327      -0.08946179      -0.05394240
Ru       6.34764854       6.22154670      12.87672658      -0.05766474       0.19137727       0.18374685
Ru       9.52751551       6.22597091       3.22914646      -0.13522134       0.16976478      -0.20123171
Ru       6.34392357       7.78681399       9.66868931       0.09501842       0.02983675      -0.22232738
Ru       9.51249545       7.79061904       6.44239907       0.23702460      -0.03747169      -0.00217427
Ru       6.34029316       6.23430986       6.44897354       0.11004548      -0.30492239      -0.12083441
Ru       9.52515265       6.23398510       9.66396659      -0.05765846      -0.19425378      -0.03525916
Ru       6.35584537      10.89546925       3.21468199      -0.08408838       0.11823098       0.18106216
Ru       9.51920524      10.89593626      12.87782575       0.12641427       0.21115640       0.19561094
Ru       6.33984188       9.34590964      12.87930882       0.17520550      -0.11799742       0.05161405
Ru       9.51661144       9.34515510       3.21539489       0.09271386      -0.01138624       0.19066348
Ru       6.34819517      10.91091878       9.66154777       0.08407931      -0.25835646       0.03864313
Ru       9.51477336      10.90158514       6.43375952      -0.02053951      -0.02573336       0.21464452
Ru       6.34286494       9.33397389       6.44877813       0.08638500       0.38784949      -0.11402375
Ru       9.52838856       9.34595012       9.66211742      -0.20224150      -0.09532880      -0.02646732
192
Lattice="12.64256916 5e-08 -5.8e-07 5e-08 12.58988956 8e-08 -5.8e-07 8e-08 12.82035748" Properties=species:S:1:pos:R:3:dft_forces:R:3 dft_energy=-1345.70373667 dft_stress="-0.01469496161306113 -0.00024306509341370114 1.0745918880905443e-05 -0.00024306509341370114 0.030337321871374046 -0.00033390972197114716 1.0745918880905443e-05 -0.00033390972197114716 0.02070687813646569" free_dft_energy=-1346.06078242 pbc="T T T"
O        4.40616038       1.57338988       3.17179868       0.12356816       0.11976108       0.03884475
O        1.23160787       1.57073553       0.00312004       0.11160437       0.20987139      -0.16376059
O        1.93793340       1.57570629       3.17144252       0.28783526       0.02998384       0.01233256
O        5.11524278       1.58555397       0.00763353       0.23487243      -0.09372163      -0.21598637
O       12.63593199       0.00149135       4.41498823       0.09225324       0.26813320      -0.25251347
O        3.18192764       0.00473420       1.22968675      -0.02906985       0.26246253      -0.19674086
O        0.00040169       0.00722787       1.93705717       0.08672106       0.20574478       0.06591454
O        3.18381025      12.58536971       5.12539078      -0.02963188       0.32496778      -0.15582241
O        4.40108549       1.58390387       9.51467324       0.13965308      -0.03064621       0.04565273
O        1.23436189       1.56975796       6.35877021       0.01064577       0.21489256      -0.09092090
O        1.93601510       1.57911907       9.52938933       0.47719667       0.05415275      -0.06978584
O        5.12350593       1.58201272       6.34149730      -0.01288399      -0.04390424       0.05007079
O        0.00747443       0.00100940      10.75376662       0.05770069       0.26342943       0.99369460
O        3.16913565      12.58298772       7.57398803       0.09173065       0.34836751       0.30265166
O        0.00003419      12.58403091       8.29610456       0.03857271       0.47005136      -0.17812554
O        3.17829548       0.00872463      11.47581709      -0.00017969       0.12061915       1.05651174
O        4.40949689       4.73155587       3.17909785      -0.06523736       0.04729349      -0.04964804
O        1.23689973       4.73601488      12.81493854       0.08971632       0.08105847      -0.04053856
O        1.94496811       4.73298633       3.16868847       0.15772233       0.01118278       0.02008298
O        5.11290460       4.74663460      12.81446337       0.30658749      -0.11601459      -0.06288206
O       12.63997737       3.15948234       4.40645477       0.11163952      -0.00038708      -0.07472453
O        3.18643726       3.14848967       1.24128727      -0.07427068       0.16051577      -0.53844432
O        0.00707155       3.15981037       1.93941716       0.02930342      -0.00158338       0.13248042
O        3.18151293       3.15135843       5.11626455      -0.06836631       0.04189254       0.05951396
O        4.41445199       4.73295024       9.52360956      -0.09614206       0.04941931      -0.04196101
O        1.22935317       4.73387632       6.35746730       0.10431993       0.09837271      -0.09192052
O        1.94657520       4.74157481       9.51866114       0.22059372      -0.04166212      -0.02711202
O        5.12428321       4.73577779       6.34205577      -0.04853882      -0.00724003       0.01646954
O        0.00859685       3.16354509      10.76462869       0.03373499      -0.03619537       0.66213555
O        3.17411843       3.16755320       7.58361350       0.03600374      -0.11300658      -0.03476269
O       12.63827108       3.15595090       8.29163474       0.12617875       0.01984557       0.19447424
O        3.18140935       3.15975731      11.46045883      -0.00840034       0.01370934       1.33221999
O        4.40118947       7.90482583       3.17537035       0.18286576      -0.16259256      -0.00401846
O        1.23083068       7.89149558      12.81602214       0.07484552       0.07579816      -0.11751771
O        1.94457798       7.89372317       3.16721300       0.08267998       0.00364464       0.03940683
O        5.13160697       7.90154652       0.00011430      -0.05128577      -0.11715143      -0.12044145
O        0.00322292       6.31261975       4.40419809       0.03365397       0.00972334      -0.10842138
O        3.18191237       6.32203144       1.23574082      -0.01078940       0.00014445      -0.36155501
O       12.63999633       6.31052987       1.94873700       0.10595410       0.03855965      -0.09068101
O        3.17353611       6.31992266       5.11039387      -0.01154019      -0.02575028       0.17188598
O        4.41724322       7.88776141       9.53091449      -0.11771441       0.02758146      -0.12426337
O        1.22920804       7.89285461       6.35652464       0.09159376       0.06501361      -0.10638854
O        1.95087028       7.88968010       9.53207395       0.11273085       0.02148880      -0.13484972
O        5.12282654       7.89792949       6.35129799       0.02202706      -0.04946374      -0.00737151
O        0.00335993       6.31129848      10.74712982       0.04865110       0.10828087       0.89422913
O        3.17764939       6.31203964       7.57796436       0.01157580       0.06319302       0.02886800
O        0.00474479       6.32495006       8.29421877       0.02952528      -0.08033708       0.01456503
O        3.17971109       6.32374033      11.47101270       0.01944414      -0.03359085       1.10354875
O        4.40657244      11.05865964       3.18246105       0.11186765      -0.41569952      -0.04629812
O        1.23691323      11.05952353       0.00974592       0.11242040      -0.38106721      -0.20465261
O        1.95194241      11.04918876       3.17997119      -0.02884871      -0.21270150      -0.00891587
O        5.11889007      11.05402944       0.00291403      -0.06926932      -0.40060988      -0.13856976
O       12.63282145       9.46613962       4.40906644       0.20018410       0.04597353      -0.25857790
O        3.18017782       9.47183108       1.23850286      -0.03723065       0.05424813      -0.37291881
O        0.00739206       9.48363056       1.93515405       0.04010599      -0.19342515       0.15045096
O        3.18661550       9.48209211       5.12091556      -0.09468363      -0.22344301       0.08284438
O        4.41861369      11.05586321       9.52867505      -0.06116618      -0.38374159      -0.05395605
O        1.22984499      11.05091649       6.35783080       0.17500866      -0.17593883      -0.10743666
O        1.93608139      11.06300507       9.51960297       0.22943802      -0.49523210      -0.00295363