192
Lattice="12.69806608 5e-08 -5.9e-07 5e-08 12.59928014 8e-08 -5.8e-07 8e-08 12.7341143" Properties=species:S:1:pos:R:3:dft_forces:R:3 dft_energy=-1347.68999847 dft_stress="-0.0005098891653980625 -0.00029228927942174604 -2.1876901425823127e-05 -0.00029228927942174604 0.03278847879066493 8.888944461621744e-05 -2.1876901425823127e-05 8.888944461621744e-05 0.007470014413282345" free_dft_energy=-1348.05199328 pbc="T T T"
O        4.40246496       1.56838627       3.17869922       0.13294659       0.04300032       0.09607128
O        1.22887991       1.57261275      12.72714182       0.02632794       0.01530052       0.05632179
O        1.94523032       1.57278681       3.18093252       0.06987585      -0.06392252       0.07700794
O        5.11588042       1.56953481       0.00711012       0.15361898       0.04378663      -0.03938896
O        0.00529875      12.59804771       4.41291214      -0.06977785       0.02179408       0.19539255
O        3.17493664       0.00833457       1.23783038       0.00904572      -0.16198899      -0.08674817
O       12.69307870       0.00773816       1.94702015       0.03768914      -0.13233927       0.19071629
O        3.18319775      12.59467011       5.13891263      -0.04680981       0.04640725      -0.00366908
O        4.41457278       1.58158671       9.54504084      -0.21474581      -0.09695683       0.04598849
O        1.22265015       1.56811943       6.37195706       0.02679498       0.05359249      -0.06590347
O        1.94736508       1.56799006       9.54819634       0.02924911       0.10804109       0.02725377
O        5.11670500       1.57523627       6.35722224       0.01964616      -0.03269817       0.07388623
O        0.00541142       0.00707293      10.78896102      -0.02481430      -0.09347000      -0.06759027
O        3.16852573       0.00179458       7.60819407       0.07590516      -0.02958258      -0.14237453
O       12.69407559       0.00658549       8.30681108       0.04204271      -0.12717182       0.28408887
O        3.16537179      12.59788460      11.50286304       0.11059181       0.04975826      -0.06852750
O        4.39635187       4.73006412       3.18822933       0.13971593      -0.08891700      -0.04542638
O        1.23718123       4.72255479       0.00332625      -0.11142662       0.01332959      -0.01464121
O        1.93298330       4.72407492       3.18456151       0.28898635       0.01646784       0.01799434
O        5.11650841       4.72961565      12.73155122       0.04415954      -0.01211554       0.03644957
O       12.69399921       3.14512146       4.40952587      -0.01248482       0.05804109       0.12913212
O        3.17812171       3.14171557       1.23648950       0.01713131       0.16226424      -0.02695226
O       12.69705956       3.14808303       1.94326500      -0.00432864       0.00918200       0.27851559
O        3.17079564       3.15187792       5.12355191       0.01885679      -0.07368153       0.36537409
O        4.41025164       4.71774370       9.55322877      -0.15096338       0.06636704      -0.02473090
O        1.24089944       4.72965831       6.37671149      -0.41054309      -0.06899363      -0.11763630
O        1.94585732       4.72847765       9.55145426       0.06664874      -0.09343044       0.01721406
O        5.12029298       4.73057706       6.36548734      -0.04211301      -0.03876449       0.03124949
O       12.69293025       3.15964973      10.79141534       0.04540473      -0.16593746      -0.10522407
O        3.17826808       3.15647138       7.59802552      -0.02803076      -0.11481453       0.05388725
O       12.69399383       3.14777439       8.30565128       0.03825712      -0.00628174       0.28495895
O        3.17591889       3.15138886      11.50305526       0.00777347       0.00160456       0.04023558
O        4.41270013       7.87856703       3.18087641      -0.17441386      -0.02894580       0.01288956
O        1.23476290       7.86820522       0.00693639      -0.04806372       0.11191322      -0.05712637
O        1.93679032       7.88442493       3.19329127       0.21460672      -0.08663154      -0.09360321
O        5.11275030       7.88346052      12.72914220       0.24505050      -0.19672128       0.04825555
O       12.69225641       6.30669486       4.41872451       0.00376958      -0.06703385      -0.04087450
O        3.17206500       6.30391011       1.23833189       0.06042978      -0.01331078      -0.05594177
O       12.69582874       6.30306134       1.95088855       0.01970224      -0.03163819       0.05066112
O        3.17241338       6.30966196       5.13532806       0.01806232      -0.14894325      -0.07148186
O        4.41113201       7.86752808       9.54366891      -0.14446320       0.07593420       0.06176193
O        1.23262451       7.87727699       6.36517861      -0.05666172      -0.02823160      -0.02680180
O        1.94571766       7.86458916       9.54740292      -0.03028033       0.14364335       0.07239848
O        5.12575951       7.88009043       6.36021581      -0.03652325      -0.09900301       0.05868420
O       12.69672432       6.29349615      10.77710641       0.03223037       0.09603802       0.13632439
O        3.17454083       6.30318771       7.59664504       0.02701529      -0.05217032       0.11969838
O        0.00802089       6.30916014       8.31919717      -0.03397564      -0.08922875       0.05111931
O        3.17021265       6.30507687      11.49645404       0.05724956      -0.04637167       0.11829594
O        4.40187809      11.01747999       3.18499299       0.00457411       0.06040059       0.00471844
O        1.24111378      11.03104631      12.72577716      -0.13765901      -0.11880106       0.07393028
O        1.93712086      11.02199027       3.17975340       0.20094681       0.04163908       0.04330939
O        5.11935090      11.03263611      12.73221509       0.13432026      -0.11939787       0.02222883
O        0.00974878       9.45433202       4.41070390      -0.07167065      -0.09925655       0.14525098
O        3.17183416       9.44991836       1.23001934       0.03713805      -0.01140997       0.00947824
O       12.69224803       9.45870980       1.94635243       0.06404361      -0.10715725       0.13165744
O        3.17602409       9.44599270       5.12743701      -0.00847038       0.03637828       0.17106190
O        4.41242900      11.02584192       9.55465516      -0.27613156      -0.06074296      -0.00019509
O        1.23826018      11.03106580       6.35876929      -0.20315456      -0.09451823       0.02022518
O        1.94432774      11.03444445       9.55149632       0.04585552      -0.18488427       0.05517962
O        5.10937660      11.02745159       6.36240254       0.21067925      -0.11871254       0.03883353
O       12.68925507       9.44205512      10.79425406       0.11450212       0.15084207      -0.05974880
O        3.16592394       9.45848579       7.60870898       0.03746290      -0.17240964      -0.11541511
O       12.69037300       9.45585056       8.30707245       0.10308969      -0.03565120       0.21189892
O        3.18232065       9.44935952      11.50456060      -0.05222454      -0.03405129      -0.08310002
O       10.74999759       1.57363667       3.18247396      -0.07834026      -0.00272583       0.08690689
O        7.57505602       1.57987979      12.73181392       0.00281934      -0.05065216       0.00629975
O        8.29081380       1.56591507       3.17794200       0.14485912       0.14154920       0.08309940
O       11.46589731       1.56492173       0.00791602       0.18548605       0.10388901      -0.07508066
O        6.35800237       0.00072199       4.41826544      -0.06947027      -0.00433970      -0.07794365
O        9.53219600       0.00973375       1.24427903      -0.10025768      -0.13439196      -0.24930891
O        6.34894564      12.59253843       1.95582451       0.02759977       0.09798901      -0.00914386
O        9.51698917      12.59317208       5.12544703       0.05842400       0.02732903       0.18613314
O       10.74728754       1.56606165       9.54480726       0.17311178       0.12849553       0.06520108
O        7.57869278       1.56635644       6.36696678      -0.09911738       0.06891679      -0.03575761
O        8.28267659       1.58026279       9.55170914       0.24283923      -0.09342020       0.04293270
O       11.45980703       1.57215262       6.37063326       0.22420687      -0.03623298      -0.11040866
O        6.34374812       0.00010832      10.78456211       0.06995946       0.01923167       0.03089772
O        9.52720423       0.00790374       7.59990896      -0.02710809      -0.11188581      -0.01938116
O        6.34286470       0.00649904       8.32325163       0.01243117      -0.10504053      -0.13419779
O        9.52284638      12.59242397      11.49896114      -0.02523206       0.10749553       0.08185186
O       10.75264845       4.72867848       3.18071361      -0.06924680      -0.00143867       0.02543372
O        7.57358369       4.72268870      12.73365937       0.09998599       0.04576340      -0.00916336
O        8.28805160       4.72037491       3.18850038       0.21317362       0.11695464      -0.04291878
O       11.46628753       4.73389141       0.00703433       0.14627879      -0.14923794      -0.06129178
O        6.34937595       3.15311745       4.42750037       0.00071470      -0.04461073      -0.26639946
O        9.51969121       3.14518670       1.24317767       0.02794974       0.10270796      -0.32293761
O        6.34976425       3.15870710       1.93923839      -0.02203417      -0.10426107       0.22140670
O        9.53212625       3.14852880       5.13434964      -0.06168639       0.02940302      -0.04900506
O       10.74946197       4.72330757       9.55005195       0.03373324      -0.03365916       0.01336767
O        7.57530457       4.71489147       6.36813986       0.00440572       0.10153679      -0.01730943
O        8.29497290       4.72985440       9.55961131       0.12639253      -0.10448309      -0.03853419
O       11.45914534       4.72085208       6.37586904       0.19587251       0.04895222      -0.11099754
O        6.33973986       3.14762533      10.78731079       0.06282608       0.04901028      -0.05671678
O        9.51719232       3.14725302       7.60895670       0.02715967       0.01645035      -0.35470186
O        6.35533764       3.14447361       8.31596481      -0.02775105       0.08494984       0.02636550
O        9.52304709       3.14041604      11.49757866       0.03745241       0.13527657       0.01189325
O       10.75264390       7.88109296       3.17486065       0.04215735      -0.09095209       0.05305386
O        7.57884407       7.87234915       0.00195184      -0.00538168      -0.05291667       0.06084764
O        8.28851636       7.88172266       3.18944196       0.17137272      -0.09547738      -0.03234343
O       11.46325664       7.87454786       0.00020887       0.27151878       0.00805508       0.01772532
O        6.34111575       6.29332347       4.42291152       0.11568515       0.05816628      -0.11552618
O        9.52730282       6.30468524       1.22700651      -0.05546228      -0.11060111       0.13809205
O        6.34040020       6.29716334       1.95653503       0.09272683       0.01288822      -0.05747203
O        9.53129339       6.29698182       5.13878712      -0.07176725       0.07400253      -0.22133949
O       10.76340572       7.87068234       9.54350969      -0.21982499       0.08704433       0.06251504
O        7.58577985       7.86777678       6.37684594      -0.17195560       0.06320738      -0.11206533
O        8.29906233       7.86674379       9.54126835      -0.00634405       0.10398617       0.08560471
O       11.47509247       7.87796307       6.37262198      -0.13756345      -0.01727142      -0.10091277
O        6.34441200       6.29935844      10.78107389       0.07462663       0.01816926       0.09081239
O        9.52688464       6.29515784       7.61085690      -0.05425800       0.03467635      -0.33546410
O        6.35763918       6.29864380       8.31957940      -0.00983241       0.01997646       0.04494394
O        9.52500705       6.30634451      11.50345649       0.00830174      -0.10355950      -0.09037810
O       10.76481069      11.02296121       3.18265522      -0.29671010       0.01845143       0.06851237
O        7.58737782      11.01840011       0.00256131      -0.24852753       0.06421691       0.01779008
O        8.30016431      11.01799796       3.17725709      -0.09992330       0.01106089       0.06205915
O       11.46721343      11.02846766      12.72914460       0.06769013      -0.04882618       0.04227480
O        6.34931579       9.45531479       4.41621951       0.03087582      -0.09329266       0.01442143
O        9.52894216       9.45615629       1.23940867      -0.03178144      -0.12461587      -0.08836631
O        6.34059893       9.44905356       1.94739769       0.04312585      -0.01172869       0.10185734
O        9.53342706       9.44462256       5.12788419      -0.07025405       0.02815153       0.20162285
O       10.75499606      11.03092525       9.54143303      -0.05748486      -0.05726940       0.10257076
O        7.59009161      11.02247967       6.37205985      -0.28223156      -0.01273655      -0.01654232
O        8.30124895      11.02975527       9.55514728      -0.18285446      -0.01150504      -0.00751896
O       11.46491423      11.01825754       6.36021579       0.08575962       0.02116944       0.00589875
O        6.35793710       9.44040724      10.79558304      -0.04225392       0.17675593      -0.21190927
O        9.51452397       9.44368846       7.61170387       0.05361794       0.06462494      -0.28148395
O        6.35264466       9.44922470       8.32130935       0.00247071       0.08447845      -0.05464036
O        9.51588566       9.44537641      11.50527265       0.04541493       0.01994413      -0.04143841
Ru      12.68929628       1.56871175       3.19207335       0.20354456       0.17975643      -0.36503697
Ru       3.17637418       1.57644395      12.73400529      -0.06515289      -0.04182349       0.04796053
Ru       0.00844033      12.59319645       0.00734792      -0.18986808       0.13243501      -0.15666197
Ru       3.18412950      12.58930847       3.18988130      -0.28326152       0.25340410      -0.15104443
Ru       0.00604004       1.57200242       9.55130088      -0.16987153       0.16625606      -0.11387140
Ru       3.17409161       1.56937911       6.37676779      -0.09289548       0.23621949      -0.21416030
Ru      12.69482504      12.59175392       6.36723352       0.03252036       0.07480305      -0.03284014
Ru       3.17825249       0.00040968       9.54885336       0.01015368      -0.03547101       0.12722961
Ru      12.69461716       4.72774299       3.19080429      -0.00877830      -0.05209400      -0.27521339
Ru       3.18013823       4.73374321       0.00577951      -0.13225066      -0.21842497      -0.09145108
Ru       0.00752578       3.14588856       0.00366464      -0.20609531       0.10468281      -0.00050173
Ru       3.18132255       3.14590182       3.19041811      -0.27624321       0.07844523      -0.19163914
Ru       0.00140488       4.72576716       9.55991222      -0.06701945      -0.04114540      -0.37372610
Ru       3.16784862       4.73239500       6.37371023       0.20432262      -0.15744473      -0.21099656
Ru      12.69145570       3.14033450       6.35736516       0.09745128       0.29194990       0.19999728
Ru       3.17689432       3.14355146       9.55268125       0.01541661       0.19313693      -0.04481392
Ru       0.00148670       7.87811810       3.18599764      -0.07099422       0.04398417      -0.16765705
Ru       3.18425564       7.87486806      12.73313075      -0.26134001       0.03270303       0.03139557
Ru       0.00545619       6.29892451      12.72697318      -0.09299732       0.02769338       0.17674081
Ru       3.17648447       6.30478099       3.18048603      -0.16271878      -0.02044789       0.13452839
Ru       0.00220055       7.88283720       9.56012579      -0.05160426      -0.11913855      -0.32064633
Ru       3.17472311       7.86494621       6.36496560       0.07920775       0.46111327       0.06125194
Ru      12.69533078       6.30930419       6.36130498       0.07608516      -0.28638793       0.30125559
Ru       3.17119366       6.29926582       9.55166305       0.18951319      -0.11163874      -0.09735342
Ru      12.69411828      11.02584040       3.19335943       0.11949443       0.04476140      -0.36411857
Ru       3.18077131      11.02082087      12.72743034      -0.01833145       0.21084841       0.18606295
Ru       0.00719451       9.45385032       0.00703196      -0.15412364      -0.08505995      -0.07343751
Ru       3.17158887       9.45195354       3.18095913       0.00859072      -0.12284281       0.00712198
Ru       0.00286924      11.02465543       9.55477481      -0.10609108       0.06846021      -0.15369424
Ru       3.17273410      11.02563036       6.37073532       0.01986880      -0.14553692      -0.02254074
Ru       0.00450096       9.44764345       6.35794239      -0.02410627       0.15342814       0.13829848
Ru       3.16695709       9.44202723       9.55771165       0.25951661       0.18953341      -0.15685394
Ru       6.35666253       1.57861236       3.18533501      -0.18047773      -0.00586637      -0.06105345
Ru       9.52425297       1.57421314      12.72470909      -0.03018675       0.03814405       0.32321431
Ru       6.35762130      12.59716853       0.00484626      -0.16730258       0.07442715      -0.01890492
Ru       9.51633303      12.59383302       3.18856086       0.18923240       0.02748543      -0.20623382
Ru       6.35087599       1.57390355       9.55099548      -0.06535596       0.10959503       0.02098423
Ru       9.53053105       1.57154193       6.35784193      -0.30219101       0.09475967       0.25975021
Ru       6.33964626      12.59314410       6.36250373       0.23617676       0.09049423       0.11806043
Ru       9.52468014       0.00390701       9.55926918      -0.04431550      -0.10644383      -0.26066976
Ru       6.35364053       4.72397149       3.17872437      -0.22902452      -0.01576700       0.20172364
Ru       9.52843014       4.73077934      12.73168116      -0.13541548      -0.26461406       0.05935592
Ru       6.33916963       3.15693647      12.73273861       0.12112883      -0.20849952      -0.03722901
Ru       9.52450458       3.15239765       3.18471892      -0.07261387      -0.08217826      -0.03653695
Ru       6.35594177       4.72383345       9.55434521      -0.12399141      -0.03139660      -0.04407717
Ru       9.51655443       4.73173470       6.35876428       0.12319580      -0.30094019       0.33877575
Ru       6.34112085       3.14846076       6.36638541       0.13580923      -0.05367470       0.08448260
Ru       9.52530249       3.14078494       9.54392944      -0.10225215       0.20634915       0.12950936
Ru       6.35506375       7.86974628       3.18711375      -0.20335337       0.19364586       0.00445854
Ru       9.53012046       7.86522930       0.00969040      -0.14349445       0.42753539      -0.20807172
Ru       6.35031405       6.29573003       0.00588138      -0.08631949       0.16708226      -0.12687655
Ru       9.52364595       6.30926195       3.17600486      -0.04031067      -0.25659706       0.13473358
Ru       6.35724790       7.87895841       9.55482505      -0.09600822      -0.10942254      -0.06455627
Ru       9.51481837       7.86781283       6.36140931       0.34327563       0.18216857       0.28283471
Ru       6.35855823       6.30083870       6.37075615      -0.22008090      -0.12783106       0.01368637
Ru       9.52823905       6.29960350       9.54260383       0.02634132      -0.00268979       0.23100409
Ru       6.34357734      11.02734939       3.18710078       0.19318050      -0.15766145      -0.08529450
Ru       9.51437170      11.02608467       0.00165494       0.30805747      -0.09855666       0.07074939
Ru       6.34500716       9.44257500       0.00079743       0.11717593       0.17815349       0.04246825
Ru       9.53113083       9.44272925       3.18660488      -0.08659031       0.25948570      -0.10873274
Ru       6.34420624      11.03336672       9.55205132       0.20443385      -0.30039948       0.06445599
Ru       9.52520819      11.02498013       6.37023165       0.00455495      -0.11142695       0.00439736
Ru       6.35201150       9.44328551       6.36343928       0.00576524       0.23478033       0.14211853
Ru       9.51945988       9.45427590       9.54875647       0.19897697      -0.12352929       0.10759843
192
Lattice="12.72874207 5e-08 -5.9e-07 5e-08 12.59971338 8e-08 -5.8e-07 8e-08 12.75215259" Properties=species:S:1:pos:R:3:dft_forces:R:3 dft_energy=-1346.50692074 dft_stress="0.005657796170732889 -0.000121434470753201 -4.3975676018053155e-06 -0.000121434470753201 0.03217023513566426 -7.3129140994141274e-06 -4.3975676018053155e-06 -7.3129140994141274e-06 0.010962678116742121" free_dft_energy=-1346.85503923 pbc="T T T"
O        4.44461247       1.56643068       3.19594467      -0.08536792      -0.10736617       0.00723245
O        1.24059596       1.56424505      12.74818012       0.08541231      -0.10256676       0.07173631
O        1.96035686       1.57044922       3.18705079       0.10105188      -0.14439986       0.04466089
O        5.15987187       1.56537728      12.75087383      -0.11794557      -0.18751453       0.04350650
O        0.00900047      12.59663190       4.43722532      -0.00813596      -0.42740339      -0.25251759
O        3.19671608       0.00955514       1.23390923       0.03384837      -0.64076161       0.11194765
O       12.72568268      12.59312178       1.96043318       0.10617932      -0.43747137       0.04406728
O        3.20767502      12.59319799       5.14235991      -0.02462614      -0.34589528       0.29563114
O        4.44154048       1.56068046       9.58333404      -0.02444889      -0.04857673      -0.00121649
O        1.23238774       1.55326701       6.38751174       0.34601185      -0.01266231       0.01844527
O        1.94930484       1.55638987       9.57823393       0.23564359      -0.04318740       0.06529959
O        5.16402963       1.56870407       6.39816279      -0.18616291      -0.19075199      -0.08281787
O        0.00653182      12.59714311      10.83075715      -0.00410288      -0.55427966      -0.43943056
O        3.19893047       0.00857265       7.62216383       0.02617563      -0.61509043       0.01825764
O       12.72563987      12.59685058       8.34638270       0.05391499      -0.56098021       0.11464716
O        3.19254458      12.59948680      11.54248001       0.07541573      -0.62843215      -0.20434531
O        4.43521485       4.67977097       3.19555345       0.18668549       0.16974028      -0.02235734
O        1.24957872       4.69443133       0.00889932      -0.07092000      -0.02730845      -0.01552011
O        1.95785288       4.69503198       3.19529980       0.00386454      -0.13818070      -0.03358569
O        5.15623465       4.68087930      12.74750562      -0.05674818       0.10677013       0.03424470
O        0.00439123       3.12715351       4.42800711       0.07319400      -0.00099114       0.20435464
O        3.20337527       3.11660603       1.23482702      -0.01633636       0.04344566       0.11087959
O        0.00627723       3.12855017       1.95300252       0.03820706       0.02584549       0.01552637
O        3.20153438       3.13264650       5.15800981       0.01298500      -0.07121041      -0.16440768
O        4.44029995       4.67925228       9.57685532      -0.06087874       0.19516770       0.05181947
O        1.24099480       4.68346924       6.39560836       0.14363201       0.07689470      -0.01929837
O        1.95612873       4.69057210       9.58553086       0.08620249       0.08010504       0.00058510
O        5.15528499       4.67820132       6.38281547       0.03252632       0.16629660       0.05582723
O        0.00918674       3.13503744      10.81960699       0.00726173      -0.16568405      -0.14081268
O        3.20113077       3.12107531       7.63194564      -0.02763057       0.09319221      -0.08694062
O        0.00949438       3.12394829       8.34860210      -0.00674266      -0.04322302       0.03243216
O        3.20571459       3.12312569      11.52916747      -0.07998189      -0.04386003      -0.22583528
O        4.43501897       7.81653047       3.19871601       0.13063390      -0.09373578      -0.01589561
O        1.23329300       7.82130392      12.74461555       0.32982118      -0.05083130       0.09117408
O        1.95758075       7.81010813       3.19148259      -0.01894040       0.02838247       0.03121685
O        5.16024518       7.82153241       0.00144756      -0.09170802      -0.10135381       0.01774707
O        0.00057389       6.24620071       4.43030074       0.05936439       0.11325552       0.06985775
O        3.19152367       6.25840668       1.23608670       0.05637836      -0.13091786       0.09811054
O        0.00150575       6.24599961       1.95789057       0.07135254       0.10678267      -0.10093855
O        3.19580990       6.25406182       5.13945927       0.04147208      -0.05996983       0.18691575
O        4.44282522       7.81642190       9.58543627       0.04842537      -0.03442323      -0.02604958
O        1.23449081       7.80500993       6.39253332       0.35364955       0.15277168      -0.04298143
O        1.96250712       7.81163954       9.58963197      -0.08105441       0.10163983      -0.03763758
O        5.16022605       7.80415115       6.38436539      -0.12484481       0.06058209       0.04184325
O       12.72549145       6.25327731      10.83188623       0.07388534      -0.11881608      -0.44883897
O        3.19187571       6.25156923       7.63106296       0.10107364       0.04285858      -0.03255870
O        0.00825780       6.25746110       8.35032978      -0.01682853      -0.17236614      -0.18210675
O        3.19214055       6.24643361      11.54220542       0.06951654       0.03112270      -0.32503840
O        4.43605294      10.94507017       3.19611637      -0.03772767       0.40618074       0.02104442
O        1.23506416      10.92906900       0.00044391       0.23927680       0.59391471       0.09719008
O        1.96587150      10.93877081       3.18966326       0.00864423       0.46788638       0.03741405
O        5.15137771      10.93273831       0.00568193       0.19177029       0.60695180       0.01853157
O       12.72032057       9.37871026       4.44206352       0.13796759       0.01548283      -0.19650220
O        3.20149729       9.36816903       1.24504779      -0.01737999       0.16455141      -0.00968992
O       12.72473119       9.37078061       1.96002228       0.08921772       0.15591857      -0.03357558
O        3.20496760       9.37121780       5.15619585      -0.04616126       0.14912345      -0.18554635
O        4.43278123      10.93355773       9.58585698       0.16318245       0.60343013      -0.02331095
O        1.23757449      10.94432541       6.38312417       0.02282653       0.38038045       0.04790421
O        1.96196005      10.94251599       9.59365925       0.11755155       0.43826122      -0.08231414
O        5.16326645      10.94541278       6.39182325      -0.11407726       0.43064850      -0.00741224
O        0.00063204       9.38020104      10.82782655       0.02712106      -0.04997070      -0.39480175
O        3.19330847       9.38356062       7.62531431       0.06229201      -0.03929801      -0.04120040
O       12.72398996       9.37906950       8.35410946       0.10586478      -0.01720189      -0.09456303
O        3.20246344       9.37765163      11.53255384       0.03003875       0.07358186      -0.27249867
O       10.84408428       1.57107508       3.18980396      -0.98965956      -0.17703927       0.03189521
O        7.64675056       1.56510480       0.00453674      -0.26457329      -0.11275384       0.02826776
O        8.35707825       1.55862378       3.20290346      -0.02613420       0.03121144      -0.05344781
O       11.54820566       1.56897049      12.74964665      -0.72588964      -0.15719207       0.06746980
O        6.40254331       0.00780646       4.43319284      -0.05326640      -0.57454800      -0.07449312
O        9.60356242       0.00527630       1.23632967      -0.05674103      -0.56594850       0.10102163
O        6.39490656       0.00856003       1.96051501       0.00812595      -0.59003156       0.13936174
O        9.59848157       0.00348918       5.15419774      -0.05459918      -0.57700982       0.17049531
O       10.84076714       1.56052992       9.57654577      -0.87256754      -0.05403974       0.09081533
O        7.64116477       1.57223464       6.38300445      -0.17935394      -0.20992666       0.04304227
O        8.35943341       1.56296442       9.58787885      -0.17772009      -0.08514084      -0.02638853
O       11.55201630       1.56547176       6.38661402      -0.91764289      -0.17704293       0.05127314
O        6.40032466       0.00537664      10.82720326       0.00924280      -0.54558632      -0.35101789
O        9.60176929       0.00812514       7.62615853      -0.09196638      -0.61376707       0.00421992
O        6.40576440       0.00594412       8.33932396      -0.00790537      -0.54782260       0.18975221
O        9.58792016      12.59946477      11.53520984       0.07178907      -0.49544244       0.05570607
O       10.84509152       4.69222908       3.19618809      -0.92988690      -0.03836723       0.00332456
O        7.64258179       4.67931208       0.00253570      -0.21508624       0.07649780      -0.06341555
O        8.34997461       4.68833072       3.20173768       0.06514181      -0.00233268      -0.01810878
O       11.55027976       4.68810203       0.00704429      -0.86551436       0.08851418      -0.02482936
O        6.39597504       3.11938896       4.42689151      -0.01822936       0.10626815       0.19855721